+ 0.1 1 2 cbr 1000 ------- 2 1.0 3.1 0 0
- 0.1 1 2 cbr 1000 ------- 2 1.0 3.1 0 0
+ 0.108 1 2 cbr 1000 ------- 2 1.0 3.1 1 1
- 0.108 1 2 cbr 1000 ------- 2 1.0 3.1 1 1
r 0.1108 1 2 cbr 1000 ------- 2 1.0 3.1 0 0
+ 0.1108 2 3 cbr 1000 ------- 2 1.0 3.1 0 0
- 0.1108 2 3 cbr 1000 ------- 2 1.0 3.1 0 0
+ 0.116 1 2 cbr 1000 ------- 2 1.0 3.1 2 2
- 0.116 1 2 cbr 1000 ------- 2 1.0 3.1 2 2
r 0.1188 1 2 cbr 1000 ------- 2 1.0 3.1 1 1
+ 0.1188 2 3 cbr 1000 ------- 2 1.0 3.1 1 1
- 0.1188 2 3 cbr 1000 ------- 2 1.0 3.1 1 1
+ 0.124 1 2 cbr 1000 ------- 2 1.0 3.1 3 3
- 0.124 1 2 cbr 1000 ------- 2 1.0 3.1 3 3
r 0.1268 1 2 cbr 1000 ------- 2 1.0 3.1 2 2
+ 0.1268 2 3 cbr 1000 ------- 2 1.0 3.1 2 2
- 0.1268 2 3 cbr 1000 ------- 2 1.0 3.1 2 2
+ 0.132 1 2 cbr 1000 ------- 2 1.0 3.1 4 4
- 0.132 1 2 cbr 1000 ------- 2 1.0 3.1 4 4
r 0.132255 2 3 cbr 1000 ------- 2 1.0 3.1 0 0
r 0.1348 1 2 cbr 1000 ------- 2 1.0 3.1 3 3
+ 0.1348 2 3 cbr 1000 ------- 2 1.0 3.1 3 3
- 0.1348 2 3 cbr 1000 ------- 2 1.0 3.1 3 3
+ 0.14 1 2 cbr 1000 ------- 2 1.0 3.1 5 5
- 0.14 1 2 cbr 1000 ------- 2 1.0 3.1 5 5
r 0.140255 2 3 cbr 1000 ------- 2 1.0 3.1 1 1
r 0.1428 1 2 cbr 1000 ------- 2 1.0 3.1 4 4
+ 0.1428 2 3 cbr 1000 ------- 2 1.0 3.1 4 4
- 0.1428 2 3 cbr 1000 ------- 2 1.0 3.1 4 4
+ 0.148 1 2 cbr 1000 ------- 2 1.0 3.1 6 6
- 0.148 1 2 cbr 1000 ------- 2 1.0 3.1 6 6
r 0.148255 2 3 cbr 1000 ------- 2 1.0 3.1 2 2
r 0.1508 1 2 cbr 1000 ------- 2 1.0 3.1 5 5
+ 0.1508 2 3 cbr 1000 ------- 2 1.0 3.1 5 5
- 0.1508 2 3 cbr 1000 ------- 2 1.0 3.1 5 5
+ 0.156 1 2 cbr 1000 ------- 2 1.0 3.1 7 7
- 0.156 1 2 cbr 1000 ------- 2 1.0 3.1 7 7
r 0.156255 2 3 cbr 1000 ------- 2 1.0 3.1 3 3
r 0.1588 1 2 cbr 1000 ------- 2 1.0 3.1 6 6
+ 0.1588 2 3 cbr 1000 ------- 2 1.0 3.1 6 6
- 0.1588 2 3 cbr 1000 ------- 2 1.0 3.1 6 6
+ 0.164 1 2 cbr 1000 ------- 2 1.0 3.1 8 8
- 0.164 1 2 cbr 1000 ------- 2 1.0 3.1 8 8
r 0.164255 2 3 cbr 1000 ------- 2 1.0 3.1 4 4
r 0.1668 1 2 cbr 1000 ------- 2 1.0 3.1 7 7
+ 0.1668 2 3 cbr 1000 ------- 2 1.0 3.1 7 7
- 0.1668 2 3 cbr 1000 ------- 2 1.0 3.1 7 7
+ 0.172 1 2 cbr 1000 ------- 2 1.0 3.1 9 9
- 0.172 1 2 cbr 1000 ------- 2 1.0 3.1 9 9
r 0.172255 2 3 cbr 1000 ------- 2 1.0 3.1 5 5
r 0.1748 1 2 cbr 1000 ------- 2 1.0 3.1 8 8
+ 0.1748 2 3 cbr 1000 ------- 2 1.0 3.1 8 8
- 0.1748 2 3 cbr 1000 ------- 2 1.0 3.1 8 8
+ 0.18 1 2 cbr 1000 ------- 2 1.0 3.1 10 10
- 0.18 1 2 cbr 1000 ------- 2 1.0 3.1 10 10
r 0.180255 2 3 cbr 1000 ------- 2 1.0 3.1 6 6
r 0.1828 1 2 cbr 1000 ------- 2 1.0 3.1 9 9
+ 0.1828 2 3 cbr 1000 ------- 2 1.0 3.1 9 9
- 0.1828 2 3 cbr 1000 ------- 2 1.0 3.1 9 9
+ 0.188 1 2 cbr 1000 ------- 2 1.0 3.1 11 11
- 0.188 1 2 cbr 1000 ------- 2 1.0 3.1 11 11
r 0.188255 2 3 cbr 1000 ------- 2 1.0 3.1 7 7
r 0.1908 1 2 cbr 1000 ------- 2 1.0 3.1 10 10
+ 0.1908 2 3 cbr 1000 ------- 2 1.0 3.1 10 10
- 0.1908 2 3 cbr 1000 ------- 2 1.0 3.1 10 10
+ 0.196 1 2 cbr 1000 ------- 2 1.0 3.1 12 12
- 0.196 1 2 cbr 1000 ------- 2 1.0 3.1 12 12
r 0.196255 2 3 cbr 1000 ------- 2 1.0 3.1 8 8
r 0.1988 1 2 cbr 1000 ------- 2 1.0 3.1 11 11
+ 0.1988 2 3 cbr 1000 ------- 2 1.0 3.1 11 11
- 0.1988 2 3 cbr 1000 ------- 2 1.0 3.1 11 11
+ 0.204 1 2 cbr 1000 ------- 2 1.0 3.1 13 13
- 0.204 1 2 cbr 1000 ------- 2 1.0 3.1 13 13
r 0.204255 2 3 cbr 1000 ------- 2 1.0 3.1 9 9
r 0.2068 1 2 cbr 1000 ------- 2 1.0 3.1 12 12
+ 0.2068 2 3 cbr 1000 ------- 2 1.0 3.1 12 12
- 0.2068 2 3 cbr 1000 ------- 2 1.0 3.1 12 12
+ 0.212 1 2 cbr 1000 ------- 2 1.0 3.1 14 14
- 0.212 1 2 cbr 1000 ------- 2 1.0 3.1 14 14
r 0.212255 2 3 cbr 1000 ------- 2 1.0 3.1 10 10
r 0.2148 1 2 cbr 1000 ------- 2 1.0 3.1 13 13
+ 0.2148 2 3 cbr 1000 ------- 2 1.0 3.1 13 13
- 0.2148 2 3 cbr 1000 ------- 2 1.0 3.1 13 13
+ 0.22 1 2 cbr 1000 ------- 2 1.0 3.1 15 15
- 0.22 1 2 cbr 1000 ------- 2 1.0 3.1 15 15
r 0.220255 2 3 cbr 1000 ------- 2 1.0 3.1 11 11
r 0.2228 1 2 cbr 1000 ------- 2 1.0 3.1 14 14
+ 0.2228 2 3 cbr 1000 ------- 2 1.0 3.1 14 14
- 0.2228 2 3 cbr 1000 ------- 2 1.0 3.1 14 14
+ 0.228 1 2 cbr 1000 ------- 2 1.0 3.1 16 16
- 0.228 1 2 cbr 1000 ------- 2 1.0 3.1 16 16
r 0.228255 2 3 cbr 1000 ------- 2 1.0 3.1 12 12
r 0.2308 1 2 cbr 1000 ------- 2 1.0 3.1 15 15
+ 0.2308 2 3 cbr 1000 ------- 2 1.0 3.1 15 15
- 0.2308 2 3 cbr 1000 ------- 2 1.0 3.1 15 15
+ 0.236 1 2 cbr 1000 ------- 2 1.0 3.1 17 17
- 0.236 1 2 cbr 1000 ------- 2 1.0 3.1 17 17
r 0.236255 2 3 cbr 1000 ------- 2 1.0 3.1 13 13
r 0.2388 1 2 cbr 1000 ------- 2 1.0 3.1 16 16
+ 0.2388 2 3 cbr 1000 ------- 2 1.0 3.1 16 16
- 0.2388 2 3 cbr 1000 ------- 2 1.0 3.1 16 16
+ 0.244 1 2 cbr 1000 ------- 2 1.0 3.1 18 18
- 0.244 1 2 cbr 1000 ------- 2 1.0 3.1 18 18
r 0.244255 2 3 cbr 1000 ------- 2 1.0 3.1 14 14
r 0.2468 1 2 cbr 1000 ------- 2 1.0 3.1 17 17
+ 0.2468 2 3 cbr 1000 ------- 2 1.0 3.1 17 17
- 0.2468 2 3 cbr 1000 ------- 2 1.0 3.1 17 17
+ 0.252 1 2 cbr 1000 ------- 2 1.0 3.1 19 19
- 0.252 1 2 cbr 1000 ------- 2 1.0 3.1 19 19
r 0.252255 2 3 cbr 1000 ------- 2 1.0 3.1 15 15
r 0.2548 1 2 cbr 1000 ------- 2 1.0 3.1 18 18
+ 0.2548 2 3 cbr 1000 ------- 2 1.0 3.1 18 18
- 0.2548 2 3 cbr 1000 ------- 2 1.0 3.1 18 18
+ 0.26 1 2 cbr 1000 ------- 2 1.0 3.1 20 20
- 0.26 1 2 cbr 1000 ------- 2 1.0 3.1 20 20
r 0.260255 2 3 cbr 1000 ------- 2 1.0 3.1 16 16
r 0.2628 1 2 cbr 1000 ------- 2 1.0 3.1 19 19
+ 0.2628 2 3 cbr 1000 ------- 2 1.0 3.1 19 19
- 0.2628 2 3 cbr 1000 ------- 2 1.0 3.1 19 19
+ 0.268 1 2 cbr 1000 ------- 2 1.0 3.1 21 21
- 0.268 1 2 cbr 1000 ------- 2 1.0 3.1 21 21
r 0.268255 2 3 cbr 1000 ------- 2 1.0 3.1 17 17
r 0.2708 1 2 cbr 1000 ------- 2 1.0 3.1 20 20
+ 0.2708 2 3 cbr 1000 ------- 2 1.0 3.1 20 20
- 0.2708 2 3 cbr 1000 ------- 2 1.0 3.1 20 20
+ 0.276 1 2 cbr 1000 ------- 2 1.0 3.1 22 22
- 0.276 1 2 cbr 1000 ------- 2 1.0 3.1 22 22
r 0.276255 2 3 cbr 1000 ------- 2 1.0 3.1 18 18
r 0.2788 1 2 cbr 1000 ------- 2 1.0 3.1 21 21
+ 0.2788 2 3 cbr 1000 ------- 2 1.0 3.1 21 21
- 0.2788 2 3 cbr 1000 ------- 2 1.0 3.1 21 21
+ 0.284 1 2 cbr 1000 ------- 2 1.0 3.1 23 23
- 0.284 1 2 cbr 1000 ------- 2 1.0 3.1 23 23
r 0.284255 2 3 cbr 1000 ------- 2 1.0 3.1 19 19
r 0.2868 1 2 cbr 1000 ------- 2 1.0 3.1 22 22
+ 0.2868 2 3 cbr 1000 ------- 2 1.0 3.1 22 22
- 0.2868 2 3 cbr 1000 ------- 2 1.0 3.1 22 22
+ 0.292 1 2 cbr 1000 ------- 2 1.0 3.1 24 24
- 0.292 1 2 cbr 1000 ------- 2 1.0 3.1 24 24
r 0.292255 2 3 cbr 1000 ------- 2 1.0 3.1 20 20
r 0.2948 1 2 cbr 1000 ------- 2 1.0 3.1 23 23
+ 0.2948 2 3 cbr 1000 ------- 2 1.0 3.1 23 23
- 0.2948 2 3 cbr 1000 ------- 2 1.0 3.1 23 23
+ 0.3 1 2 cbr 1000 ------- 2 1.0 3.1 25 25
- 0.3 1 2 cbr 1000 ------- 2 1.0 3.1 25 25
r 0.300255 2 3 cbr 1000 ------- 2 1.0 3.1 21 21
r 0.3028 1 2 cbr 1000 ------- 2 1.0 3.1 24 24
+ 0.3028 2 3 cbr 1000 ------- 2 1.0 3.1 24 24
- 0.3028 2 3 cbr 1000 ------- 2 1.0 3.1 24 24
+ 0.308 1 2 cbr 1000 ------- 2 1.0 3.1 26 26
- 0.308 1 2 cbr 1000 ------- 2 1.0 3.1 26 26
r 0.308255 2 3 cbr 1000 ------- 2 1.0 3.1 22 22
r 0.3108 1 2 cbr 1000 ------- 2 1.0 3.1 25 25
+ 0.3108 2 3 cbr 1000 ------- 2 1.0 3.1 25 25
- 0.3108 2 3 cbr 1000 ------- 2 1.0 3.1 25 25
+ 0.316 1 2 cbr 1000 ------- 2 1.0 3.1 27 27
- 0.316 1 2 cbr 1000 ------- 2 1.0 3.1 27 27
r 0.316255 2 3 cbr 1000 ------- 2 1.0 3.1 23 23
r 0.3188 1 2 cbr 1000 ------- 2 1.0 3.1 26 26
+ 0.3188 2 3 cbr 1000 ------- 2 1.0 3.1 26 26
- 0.3188 2 3 cbr 1000 ------- 2 1.0 3.1 26 26
+ 0.324 1 2 cbr 1000 ------- 2 1.0 3.1 28 28
- 0.324 1 2 cbr 1000 ------- 2 1.0 3.1 28 28
r 0.324255 2 3 cbr 1000 ------- 2 1.0 3.1 24 24
r 0.3268 1 2 cbr 1000 ------- 2 1.0 3.1 27 27
+ 0.3268 2 3 cbr 1000 ------- 2 1.0 3.1 27 27
- 0.3268 2 3 cbr 1000 ------- 2 1.0 3.1 27 27
+ 0.332 1 2 cbr 1000 ------- 2 1.0 3.1 29 29
- 0.332 1 2 cbr 1000 ------- 2 1.0 3.1 29 29
r 0.332255 2 3 cbr 1000 ------- 2 1.0 3.1 25 25
r 0.3348 1 2 cbr 1000 ------- 2 1.0 3.1 28 28
+ 0.3348 2 3 cbr 1000 ------- 2 1.0 3.1 28 28
- 0.3348 2 3 cbr 1000 ------- 2 1.0 3.1 28 28
+ 0.34 1 2 cbr 1000 ------- 2 1.0 3.1 30 30
- 0.34 1 2 cbr 1000 ------- 2 1.0 3.1 30 30
r 0.340255 2 3 cbr 1000 ------- 2 1.0 3.1 26 26
r 0.3428 1 2 cbr 1000 ------- 2 1.0 3.1 29 29
+ 0.3428 2 3 cbr 1000 ------- 2 1.0 3.1 29 29
- 0.3428 2 3 cbr 1000 ------- 2 1.0 3.1 29 29
+ 0.348 1 2 cbr 1000 ------- 2 1.0 3.1 31 31
- 0.348 1 2 cbr 1000 ------- 2 1.0 3.1 31 31
r 0.348255 2 3 cbr 1000 ------- 2 1.0 3.1 27 27
r 0.3508 1 2 cbr 1000 ------- 2 1.0 3.1 30 30
+ 0.3508 2 3 cbr 1000 ------- 2 1.0 3.1 30 30
- 0.3508 2 3 cbr 1000 ------- 2 1.0 3.1 30 30
+ 0.356 1 2 cbr 1000 ------- 2 1.0 3.1 32 32
- 0.356 1 2 cbr 1000 ------- 2 1.0 3.1 32 32
r 0.356255 2 3 cbr 1000 ------- 2 1.0 3.1 28 28
r 0.3588 1 2 cbr 1000 ------- 2 1.0 3.1 31 31
+ 0.3588 2 3 cbr 1000 ------- 2 1.0 3.1 31 31
- 0.3588 2 3 cbr 1000 ------- 2 1.0 3.1 31 31
+ 0.364 1 2 cbr 1000 ------- 2 1.0 3.1 33 33
- 0.364 1 2 cbr 1000 ------- 2 1.0 3.1 33 33
r 0.364255 2 3 cbr 1000 ------- 2 1.0 3.1 29 29
r 0.3668 1 2 cbr 1000 ------- 2 1.0 3.1 32 32
+ 0.3668 2 3 cbr 1000 ------- 2 1.0 3.1 32 32
- 0.3668 2 3 cbr 1000 ------- 2 1.0 3.1 32 32
+ 0.372 1 2 cbr 1000 ------- 2 1.0 3.1 34 34
- 0.372 1 2 cbr 1000 ------- 2 1.0 3.1 34 34
r 0.372255 2 3 cbr 1000 ------- 2 1.0 3.1 30 30
r 0.3748 1 2 cbr 1000 ------- 2 1.0 3.1 33 33
+ 0.3748 2 3 cbr 1000 ------- 2 1.0 3.1 33 33
- 0.3748 2 3 cbr 1000 ------- 2 1.0 3.1 33 33
+ 0.38 1 2 cbr 1000 ------- 2 1.0 3.1 35 35
- 0.38 1 2 cbr 1000 ------- 2 1.0 3.1 35 35
r 0.380255 2 3 cbr 1000 ------- 2 1.0 3.1 31 31
r 0.3828 1 2 cbr 1000 ------- 2 1.0 3.1 34 34
+ 0.3828 2 3 cbr 1000 ------- 2 1.0 3.1 34 34
- 0.3828 2 3 cbr 1000 ------- 2 1.0 3.1 34 34
+ 0.388 1 2 cbr 1000 ------- 2 1.0 3.1 36 36
- 0.388 1 2 cbr 1000 ------- 2 1.0 3.1 36 36
r 0.388255 2 3 cbr 1000 ------- 2 1.0 3.1 32 32
r 0.3908 1 2 cbr 1000 ------- 2 1.0 3.1 35 35
+ 0.3908 2 3 cbr 1000 ------- 2 1.0 3.1 35 35
- 0.3908 2 3 cbr 1000 ------- 2 1.0 3.1 35 35
+ 0.396 1 2 cbr 1000 ------- 2 1.0 3.1 37 37
- 0.396 1 2 cbr 1000 ------- 2 1.0 3.1 37 37
r 0.396255 2 3 cbr 1000 ------- 2 1.0 3.1 33 33
r 0.3988 1 2 cbr 1000 ------- 2 1.0 3.1 36 36
+ 0.3988 2 3 cbr 1000 ------- 2 1.0 3.1 36 36
- 0.3988 2 3 cbr 1000 ------- 2 1.0 3.1 36 36
+ 0.404 1 2 cbr 1000 ------- 2 1.0 3.1 38 38
- 0.404 1 2 cbr 1000 ------- 2 1.0 3.1 38 38
r 0.404255 2 3 cbr 1000 ------- 2 1.0 3.1 34 34
r 0.4068 1 2 cbr 1000 ------- 2 1.0 3.1 37 37
+ 0.4068 2 3 cbr 1000 ------- 2 1.0 3.1 37 37
- 0.4068 2 3 cbr 1000 ------- 2 1.0 3.1 37 37
+ 0.412 1 2 cbr 1000 ------- 2 1.0 3.1 39 39
- 0.412 1 2 cbr 1000 ------- 2 1.0 3.1 39 39
r 0.412255 2 3 cbr 1000 ------- 2 1.0 3.1 35 35
r 0.4148 1 2 cbr 1000 ------- 2 1.0 3.1 38 38
+ 0.4148 2 3 cbr 1000 ------- 2 1.0 3.1 38 38
- 0.4148 2 3 cbr 1000 ------- 2 1.0 3.1 38 38
+ 0.42 1 2 cbr 1000 ------- 2 1.0 3.1 40 40
- 0.42 1 2 cbr 1000 ------- 2 1.0 3.1 40 40
r 0.420255 2 3 cbr 1000 ------- 2 1.0 3.1 36 36
r 0.4228 1 2 cbr 1000 ------- 2 1.0 3.1 39 39
+ 0.4228 2 3 cbr 1000 ------- 2 1.0 3.1 39 39
- 0.4228 2 3 cbr 1000 ------- 2 1.0 3.1 39 39
+ 0.428 1 2 cbr 1000 ------- 2 1.0 3.1 41 41
- 0.428 1 2 cbr 1000 ------- 2 1.0 3.1 41 41
r 0.428255 2 3 cbr 1000 ------- 2 1.0 3.1 37 37
r 0.4308 1 2 cbr 1000 ------- 2 1.0 3.1 40 40
+ 0.4308 2 3 cbr 1000 ------- 2 1.0 3.1 40 40
- 0.4308 2 3 cbr 1000 ------- 2 1.0 3.1 40 40
+ 0.436 1 2 cbr 1000 ------- 2 1.0 3.1 42 42
- 0.436 1 2 cbr 1000 ------- 2 1.0 3.1 42 42
r 0.436255 2 3 cbr 1000 ------- 2 1.0 3.1 38 38
r 0.4388 1 2 cbr 1000 ------- 2 1.0 3.1 41 41
+ 0.4388 2 3 cbr 1000 ------- 2 1.0 3.1 41 41
- 0.4388 2 3 cbr 1000 ------- 2 1.0 3.1 41 41
+ 0.444 1 2 cbr 1000 ------- 2 1.0 3.1 43 43
- 0.444 1 2 cbr 1000 ------- 2 1.0 3.1 43 43
r 0.444255 2 3 cbr 1000 ------- 2 1.0 3.1 39 39
r 0.4468 1 2 cbr 1000 ------- 2 1.0 3.1 42 42
+ 0.4468 2 3 cbr 1000 ------- 2 1.0 3.1 42 42
- 0.4468 2 3 cbr 1000 ------- 2 1.0 3.1 42 42
+ 0.452 1 2 cbr 1000 ------- 2 1.0 3.1 44 44
- 0.452 1 2 cbr 1000 ------- 2 1.0 3.1 44 44
r 0.452255 2 3 cbr 1000 ------- 2 1.0 3.1 40 40
r 0.4548 1 2 cbr 1000 ------- 2 1.0 3.1 43 43
+ 0.4548 2 3 cbr 1000 ------- 2 1.0 3.1 43 43
- 0.4548 2 3 cbr 1000 ------- 2 1.0 3.1 43 43
+ 0.46 1 2 cbr 1000 ------- 2 1.0 3.1 45 45
- 0.46 1 2 cbr 1000 ------- 2 1.0 3.1 45 45
r 0.460255 2 3 cbr 1000 ------- 2 1.0 3.1 41 41
r 0.4628 1 2 cbr 1000 ------- 2 1.0 3.1 44 44
+ 0.4628 2 3 cbr 1000 ------- 2 1.0 3.1 44 44
- 0.4628 2 3 cbr 1000 ------- 2 1.0 3.1 44 44
+ 0.468 1 2 cbr 1000 ------- 2 1.0 3.1 46 46
- 0.468 1 2 cbr 1000 ------- 2 1.0 3.1 46 46
r 0.468255 2 3 cbr 1000 ------- 2 1.0 3.1 42 42
r 0.4708 1 2 cbr 1000 ------- 2 1.0 3.1 45 45
+ 0.4708 2 3 cbr 1000 ------- 2 1.0 3.1 45 45
- 0.4708 2 3 cbr 1000 ------- 2 1.0 3.1 45 45
+ 0.476 1 2 cbr 1000 ------- 2 1.0 3.1 47 47
- 0.476 1 2 cbr 1000 ------- 2 1.0 3.1 47 47
r 0.476255 2 3 cbr 1000 ------- 2 1.0 3.1 43 43
r 0.4788 1 2 cbr 1000 ------- 2 1.0 3.1 46 46
+ 0.4788 2 3 cbr 1000 ------- 2 1.0 3.1 46 46
- 0.4788 2 3 cbr 1000 ------- 2 1.0 3.1 46 46
+ 0.484 1 2 cbr 1000 ------- 2 1.0 3.1 48 48
- 0.484 1 2 cbr 1000 ------- 2 1.0 3.1 48 48
r 0.484255 2 3 cbr 1000 ------- 2 1.0 3.1 44 44
r 0.4868 1 2 cbr 1000 ------- 2 1.0 3.1 47 47
+ 0.4868 2 3 cbr 1000 ------- 2 1.0 3.1 47 47
- 0.4868 2 3 cbr 1000 ------- 2 1.0 3.1 47 47
+ 0.492 1 2 cbr 1000 ------- 2 1.0 3.1 49 49
- 0.492 1 2 cbr 1000 ------- 2 1.0 3.1 49 49
r 0.492255 2 3 cbr 1000 ------- 2 1.0 3.1 45 45
r 0.4948 1 2 cbr 1000 ------- 2 1.0 3.1 48 48
+ 0.4948 2 3 cbr 1000 ------- 2 1.0 3.1 48 48
- 0.4948 2 3 cbr 1000 ------- 2 1.0 3.1 48 48
+ 0.5 1 2 cbr 1000 ------- 2 1.0 3.1 50 50
- 0.5 1 2 cbr 1000 ------- 2 1.0 3.1 50 50
r 0.500255 2 3 cbr 1000 ------- 2 1.0 3.1 46 46
r 0.5028 1 2 cbr 1000 ------- 2 1.0 3.1 49 49
+ 0.5028 2 3 cbr 1000 ------- 2 1.0 3.1 49 49
- 0.5028 2 3 cbr 1000 ------- 2 1.0 3.1 49 49
+ 0.508 1 2 cbr 1000 ------- 2 1.0 3.1 51 51
- 0.508 1 2 cbr 1000 ------- 2 1.0 3.1 51 51
r 0.508255 2 3 cbr 1000 ------- 2 1.0 3.1 47 47
r 0.5108 1 2 cbr 1000 ------- 2 1.0 3.1 50 50
+ 0.5108 2 3 cbr 1000 ------- 2 1.0 3.1 50 50
- 0.5108 2 3 cbr 1000 ------- 2 1.0 3.1 50 50
+ 0.516 1 2 cbr 1000 ------- 2 1.0 3.1 52 52
- 0.516 1 2 cbr 1000 ------- 2 1.0 3.1 52 52
r 0.516255 2 3 cbr 1000 ------- 2 1.0 3.1 48 48
r 0.5188 1 2 cbr 1000 ------- 2 1.0 3.1 51 51
+ 0.5188 2 3 cbr 1000 ------- 2 1.0 3.1 51 51
- 0.5188 2 3 cbr 1000 ------- 2 1.0 3.1 51 51
+ 0.524 1 2 cbr 1000 ------- 2 1.0 3.1 53 53
- 0.524 1 2 cbr 1000 ------- 2 1.0 3.1 53 53
r 0.524255 2 3 cbr 1000 ------- 2 1.0 3.1 49 49
r 0.5268 1 2 cbr 1000 ------- 2 1.0 3.1 52 52
+ 0.5268 2 3 cbr 1000 ------- 2 1.0 3.1 52 52
- 0.5268 2 3 cbr 1000 ------- 2 1.0 3.1 52 52
+ 0.532 1 2 cbr 1000 ------- 2 1.0 3.1 54 54
- 0.532 1 2 cbr 1000 ------- 2 1.0 3.1 54 54
r 0.532255 2 3 cbr 1000 ------- 2 1.0 3.1 50 50
r 0.5348 1 2 cbr 1000 ------- 2 1.0 3.1 53 53
+ 0.5348 2 3 cbr 1000 ------- 2 1.0 3.1 53 53
- 0.5348 2 3 cbr 1000 ------- 2 1.0 3.1 53 53
+ 0.54 1 2 cbr 1000 ------- 2 1.0 3.1 55 55
- 0.54 1 2 cbr 1000 ------- 2 1.0 3.1 55 55
r 0.540255 2 3 cbr 1000 ------- 2 1.0 3.1 51 51
r 0.5428 1 2 cbr 1000 ------- 2 1.0 3.1 54 54
+ 0.5428 2 3 cbr 1000 ------- 2 1.0 3.1 54 54
- 0.5428 2 3 cbr 1000 ------- 2 1.0 3.1 54 54
+ 0.548 1 2 cbr 1000 ------- 2 1.0 3.1 56 56
- 0.548 1 2 cbr 1000 ------- 2 1.0 3.1 56 56
r 0.548255 2 3 cbr 1000 ------- 2 1.0 3.1 52 52
r 0.5508 1 2 cbr 1000 ------- 2 1.0 3.1 55 55
+ 0.5508 2 3 cbr 1000 ------- 2 1.0 3.1 55 55
- 0.5508 2 3 cbr 1000 ------- 2 1.0 3.1 55 55
+ 0.556 1 2 cbr 1000 ------- 2 1.0 3.1 57 57
- 0.556 1 2 cbr 1000 ------- 2 1.0 3.1 57 57
r 0.556255 2 3 cbr 1000 ------- 2 1.0 3.1 53 53
r 0.5588 1 2 cbr 1000 ------- 2 1.0 3.1 56 56
+ 0.5588 2 3 cbr 1000 ------- 2 1.0 3.1 56 56
- 0.5588 2 3 cbr 1000 ------- 2 1.0 3.1 56 56
+ 0.564 1 2 cbr 1000 ------- 2 1.0 3.1 58 58
- 0.564 1 2 cbr 1000 ------- 2 1.0 3.1 58 58
r 0.564255 2 3 cbr 1000 ------- 2 1.0 3.1 54 54
r 0.5668 1 2 cbr 1000 ------- 2 1.0 3.1 57 57
+ 0.5668 2 3 cbr 1000 ------- 2 1.0 3.1 57 57
- 0.5668 2 3 cbr 1000 ------- 2 1.0 3.1 57 57
+ 0.572 1 2 cbr 1000 ------- 2 1.0 3.1 59 59
- 0.572 1 2 cbr 1000 ------- 2 1.0 3.1 59 59
r 0.572255 2 3 cbr 1000 ------- 2 1.0 3.1 55 55
r 0.5748 1 2 cbr 1000 ------- 2 1.0 3.1 58 58
+ 0.5748 2 3 cbr 1000 ------- 2 1.0 3.1 58 58
- 0.5748 2 3 cbr 1000 ------- 2 1.0 3.1 58 58
+ 0.58 1 2 cbr 1000 ------- 2 1.0 3.1 60 60
- 0.58 1 2 cbr 1000 ------- 2 1.0 3.1 60 60
r 0.580255 2 3 cbr 1000 ------- 2 1.0 3.1 56 56
r 0.5828 1 2 cbr 1000 ------- 2 1.0 3.1 59 59
+ 0.5828 2 3 cbr 1000 ------- 2 1.0 3.1 59 59
- 0.5828 2 3 cbr 1000 ------- 2 1.0 3.1 59 59
+ 0.588 1 2 cbr 1000 ------- 2 1.0 3.1 61 61
- 0.588 1 2 cbr 1000 ------- 2 1.0 3.1 61 61
r 0.588255 2 3 cbr 1000 ------- 2 1.0 3.1 57 57
r 0.5908 1 2 cbr 1000 ------- 2 1.0 3.1 60 60
+ 0.5908 2 3 cbr 1000 ------- 2 1.0 3.1 60 60
- 0.5908 2 3 cbr 1000 ------- 2 1.0 3.1 60 60
+ 0.596 1 2 cbr 1000 ------- 2 1.0 3.1 62 62
- 0.596 1 2 cbr 1000 ------- 2 1.0 3.1 62 62
r 0.596255 2 3 cbr 1000 ------- 2 1.0 3.1 58 58
r 0.5988 1 2 cbr 1000 ------- 2 1.0 3.1 61 61
+ 0.5988 2 3 cbr 1000 ------- 2 1.0 3.1 61 61
- 0.5988 2 3 cbr 1000 ------- 2 1.0 3.1 61 61
+ 0.604 1 2 cbr 1000 ------- 2 1.0 3.1 63 63
- 0.604 1 2 cbr 1000 ------- 2 1.0 3.1 63 63
r 0.604255 2 3 cbr 1000 ------- 2 1.0 3.1 59 59
r 0.6068 1 2 cbr 1000 ------- 2 1.0 3.1 62 62
+ 0.6068 2 3 cbr 1000 ------- 2 1.0 3.1 62 62
- 0.6068 2 3 cbr 1000 ------- 2 1.0 3.1 62 62
+ 0.612 1 2 cbr 1000 ------- 2 1.0 3.1 64 64
- 0.612 1 2 cbr 1000 ------- 2 1.0 3.1 64 64
r 0.612255 2 3 cbr 1000 ------- 2 1.0 3.1 60 60
r 0.6148 1 2 cbr 1000 ------- 2 1.0 3.1 63 63
+ 0.6148 2 3 cbr 1000 ------- 2 1.0 3.1 63 63
- 0.6148 2 3 cbr 1000 ------- 2 1.0 3.1 63 63
+ 0.62 1 2 cbr 1000 ------- 2 1.0 3.1 65 65
- 0.62 1 2 cbr 1000 ------- 2 1.0 3.1 65 65
r 0.620255 2 3 cbr 1000 ------- 2 1.0 3.1 61 61
r 0.6228 1 2 cbr 1000 ------- 2 1.0 3.1 64 64
+ 0.6228 2 3 cbr 1000 ------- 2 1.0 3.1 64 64
- 0.6228 2 3 cbr 1000 ------- 2 1.0 3.1 64 64
+ 0.628 1 2 cbr 1000 ------- 2 1.0 3.1 66 66
- 0.628 1 2 cbr 1000 ------- 2 1.0 3.1 66 66
r 0.628255 2 3 cbr 1000 ------- 2 1.0 3.1 62 62
r 0.6308 1 2 cbr 1000 ------- 2 1.0 3.1 65 65
+ 0.6308 2 3 cbr 1000 ------- 2 1.0 3.1 65 65
- 0.6308 2 3 cbr 1000 ------- 2 1.0 3.1 65 65
+ 0.636 1 2 cbr 1000 ------- 2 1.0 3.1 67 67
- 0.636 1 2 cbr 1000 ------- 2 1.0 3.1 67 67
r 0.636255 2 3 cbr 1000 ------- 2 1.0 3.1 63 63
r 0.6388 1 2 cbr 1000 ------- 2 1.0 3.1 66 66
+ 0.6388 2 3 cbr 1000 ------- 2 1.0 3.1 66 66
- 0.6388 2 3 cbr 1000 ------- 2 1.0 3.1 66 66
+ 0.644 1 2 cbr 1000 ------- 2 1.0 3.1 68 68
- 0.644 1 2 cbr 1000 ------- 2 1.0 3.1 68 68
r 0.644255 2 3 cbr 1000 ------- 2 1.0 3.1 64 64
r 0.6468 1 2 cbr 1000 ------- 2 1.0 3.1 67 67
+ 0.6468 2 3 cbr 1000 ------- 2 1.0 3.1 67 67
- 0.6468 2 3 cbr 1000 ------- 2 1.0 3.1 67 67
+ 0.652 1 2 cbr 1000 ------- 2 1.0 3.1 69 69
- 0.652 1 2 cbr 1000 ------- 2 1.0 3.1 69 69
r 0.652255 2 3 cbr 1000 ------- 2 1.0 3.1 65 65
r 0.6548 1 2 cbr 1000 ------- 2 1.0 3.1 68 68
+ 0.6548 2 3 cbr 1000 ------- 2 1.0 3.1 68 68
- 0.6548 2 3 cbr 1000 ------- 2 1.0 3.1 68 68
+ 0.66 1 2 cbr 1000 ------- 2 1.0 3.1 70 70
- 0.66 1 2 cbr 1000 ------- 2 1.0 3.1 70 70
r 0.660255 2 3 cbr 1000 ------- 2 1.0 3.1 66 66
r 0.6628 1 2 cbr 1000 ------- 2 1.0 3.1 69 69
+ 0.6628 2 3 cbr 1000 ------- 2 1.0 3.1 69 69
- 0.6628 2 3 cbr 1000 ------- 2 1.0 3.1 69 69
+ 0.668 1 2 cbr 1000 ------- 2 1.0 3.1 71 71
- 0.668 1 2 cbr 1000 ------- 2 1.0 3.1 71 71
r 0.668255 2 3 cbr 1000 ------- 2 1.0 3.1 67 67
r 0.6708 1 2 cbr 1000 ------- 2 1.0 3.1 70 70
+ 0.6708 2 3 cbr 1000 ------- 2 1.0 3.1 70 70
- 0.6708 2 3 cbr 1000 ------- 2 1.0 3.1 70 70
+ 0.676 1 2 cbr 1000 ------- 2 1.0 3.1 72 72
- 0.676 1 2 cbr 1000 ------- 2 1.0 3.1 72 72
r 0.676255 2 3 cbr 1000 ------- 2 1.0 3.1 68 68
r 0.6788 1 2 cbr 1000 ------- 2 1.0 3.1 71 71
+ 0.6788 2 3 cbr 1000 ------- 2 1.0 3.1 71 71
- 0.6788 2 3 cbr 1000 ------- 2 1.0 3.1 71 71
+ 0.684 1 2 cbr 1000 ------- 2 1.0 3.1 73 73
- 0.684 1 2 cbr 1000 ------- 2 1.0 3.1 73 73
r 0.684255 2 3 cbr 1000 ------- 2 1.0 3.1 69 69
r 0.6868 1 2 cbr 1000 ------- 2 1.0 3.1 72 72
+ 0.6868 2 3 cbr 1000 ------- 2 1.0 3.1 72 72
- 0.6868 2 3 cbr 1000 ------- 2 1.0 3.1 72 72
+ 0.692 1 2 cbr 1000 ------- 2 1.0 3.1 74 74
- 0.692 1 2 cbr 1000 ------- 2 1.0 3.1 74 74
r 0.692255 2 3 cbr 1000 ------- 2 1.0 3.1 70 70
r 0.6948 1 2 cbr 1000 ------- 2 1.0 3.1 73 73
+ 0.6948 2 3 cbr 1000 ------- 2 1.0 3.1 73 73
- 0.6948 2 3 cbr 1000 ------- 2 1.0 3.1 73 73
+ 0.7 1 2 cbr 1000 ------- 2 1.0 3.1 75 75
- 0.7 1 2 cbr 1000 ------- 2 1.0 3.1 75 75
r 0.700255 2 3 cbr 1000 ------- 2 1.0 3.1 71 71
r 0.7028 1 2 cbr 1000 ------- 2 1.0 3.1 74 74
+ 0.7028 2 3 cbr 1000 ------- 2 1.0 3.1 74 74
- 0.7028 2 3 cbr 1000 ------- 2 1.0 3.1 74 74
+ 0.708 1 2 cbr 1000 ------- 2 1.0 3.1 76 76
- 0.708 1 2 cbr 1000 ------- 2 1.0 3.1 76 76
r 0.708255 2 3 cbr 1000 ------- 2 1.0 3.1 72 72
r 0.7108 1 2 cbr 1000 ------- 2 1.0 3.1 75 75
+ 0.7108 2 3 cbr 1000 ------- 2 1.0 3.1 75 75
- 0.7108 2 3 cbr 1000 ------- 2 1.0 3.1 75 75
+ 0.716 1 2 cbr 1000 ------- 2 1.0 3.1 77 77
- 0.716 1 2 cbr 1000 ------- 2 1.0 3.1 77 77
r 0.716255 2 3 cbr 1000 ------- 2 1.0 3.1 73 73
r 0.7188 1 2 cbr 1000 ------- 2 1.0 3.1 76 76
+ 0.7188 2 3 cbr 1000 ------- 2 1.0 3.1 76 76
- 0.7188 2 3 cbr 1000 ------- 2 1.0 3.1 76 76
+ 0.724 1 2 cbr 1000 ------- 2 1.0 3.1 78 78
- 0.724 1 2 cbr 1000 ------- 2 1.0 3.1 78 78
r 0.724255 2 3 cbr 1000 ------- 2 1.0 3.1 74 74
r 0.7268 1 2 cbr 1000 ------- 2 1.0 3.1 77 77
+ 0.7268 2 3 cbr 1000 ------- 2 1.0 3.1 77 77
- 0.7268 2 3 cbr 1000 ------- 2 1.0 3.1 77 77
+ 0.732 1 2 cbr 1000 ------- 2 1.0 3.1 79 79
- 0.732 1 2 cbr 1000 ------- 2 1.0 3.1 79 79
r 0.732255 2 3 cbr 1000 ------- 2 1.0 3.1 75 75
r 0.7348 1 2 cbr 1000 ------- 2 1.0 3.1 78 78
+ 0.7348 2 3 cbr 1000 ------- 2 1.0 3.1 78 78
- 0.7348 2 3 cbr 1000 ------- 2 1.0 3.1 78 78
+ 0.74 1 2 cbr 1000 ------- 2 1.0 3.1 80 80
- 0.74 1 2 cbr 1000 ------- 2 1.0 3.1 80 80
r 0.740255 2 3 cbr 1000 ------- 2 1.0 3.1 76 76
r 0.7428 1 2 cbr 1000 ------- 2 1.0 3.1 79 79
+ 0.7428 2 3 cbr 1000 ------- 2 1.0 3.1 79 79
- 0.7428 2 3 cbr 1000 ------- 2 1.0 3.1 79 79
+ 0.748 1 2 cbr 1000 ------- 2 1.0 3.1 81 81
- 0.748 1 2 cbr 1000 ------- 2 1.0 3.1 81 81
r 0.748255 2 3 cbr 1000 ------- 2 1.0 3.1 77 77
r 0.7508 1 2 cbr 1000 ------- 2 1.0 3.1 80 80
+ 0.7508 2 3 cbr 1000 ------- 2 1.0 3.1 80 80
- 0.7508 2 3 cbr 1000 ------- 2 1.0 3.1 80 80
+ 0.756 1 2 cbr 1000 ------- 2 1.0 3.1 82 82
- 0.756 1 2 cbr 1000 ------- 2 1.0 3.1 82 82
r 0.756255 2 3 cbr 1000 ------- 2 1.0 3.1 78 78
r 0.7588 1 2 cbr 1000 ------- 2 1.0 3.1 81 81
+ 0.7588 2 3 cbr 1000 ------- 2 1.0 3.1 81 81
- 0.7588 2 3 cbr 1000 ------- 2 1.0 3.1 81 81
+ 0.764 1 2 cbr 1000 ------- 2 1.0 3.1 83 83
- 0.764 1 2 cbr 1000 ------- 2 1.0 3.1 83 83
r 0.764255 2 3 cbr 1000 ------- 2 1.0 3.1 79 79
r 0.7668 1 2 cbr 1000 ------- 2 1.0 3.1 82 82
+ 0.7668 2 3 cbr 1000 ------- 2 1.0 3.1 82 82
- 0.7668 2 3 cbr 1000 ------- 2 1.0 3.1 82 82
+ 0.772 1 2 cbr 1000 ------- 2 1.0 3.1 84 84
- 0.772 1 2 cbr 1000 ------- 2 1.0 3.1 84 84
r 0.772255 2 3 cbr 1000 ------- 2 1.0 3.1 80 80
r 0.7748 1 2 cbr 1000 ------- 2 1.0 3.1 83 83
+ 0.7748 2 3 cbr 1000 ------- 2 1.0 3.1 83 83
- 0.7748 2 3 cbr 1000 ------- 2 1.0 3.1 83 83
+ 0.78 1 2 cbr 1000 ------- 2 1.0 3.1 85 85
- 0.78 1 2 cbr 1000 ------- 2 1.0 3.1 85 85
r 0.780255 2 3 cbr 1000 ------- 2 1.0 3.1 81 81
r 0.7828 1 2 cbr 1000 ------- 2 1.0 3.1 84 84
+ 0.7828 2 3 cbr 1000 ------- 2 1.0 3.1 84 84
- 0.7828 2 3 cbr 1000 ------- 2 1.0 3.1 84 84
+ 0.788 1 2 cbr 1000 ------- 2 1.0 3.1 86 86
- 0.788 1 2 cbr 1000 ------- 2 1.0 3.1 86 86
r 0.788255 2 3 cbr 1000 ------- 2 1.0 3.1 82 82
r 0.7908 1 2 cbr 1000 ------- 2 1.0 3.1 85 85
+ 0.7908 2 3 cbr 1000 ------- 2 1.0 3.1 85 85
- 0.7908 2 3 cbr 1000 ------- 2 1.0 3.1 85 85
+ 0.796 1 2 cbr 1000 ------- 2 1.0 3.1 87 87
- 0.796 1 2 cbr 1000 ------- 2 1.0 3.1 87 87
r 0.796255 2 3 cbr 1000 ------- 2 1.0 3.1 83 83
r 0.7988 1 2 cbr 1000 ------- 2 1.0 3.1 86 86
+ 0.7988 2 3 cbr 1000 ------- 2 1.0 3.1 86 86
- 0.7988 2 3 cbr 1000 ------- 2 1.0 3.1 86 86
+ 0.8 0 2 tcp 40 ------- 1 0.0 3.0 0 88
- 0.8 0 2 tcp 40 ------- 1 0.0 3.0 0 88
+ 0.804 1 2 cbr 1000 ------- 2 1.0 3.1 88 89
- 0.804 1 2 cbr 1000 ------- 2 1.0 3.1 88 89
r 0.804255 2 3 cbr 1000 ------- 2 1.0 3.1 84 84
r 0.805021 0 2 tcp 40 ------- 1 0.0 3.0 0 88
+ 0.805021 2 3 tcp 40 ------- 1 0.0 3.0 0 88
- 0.805021 2 3 tcp 40 ------- 1 0.0 3.0 0 88
r 0.8068 1 2 cbr 1000 ------- 2 1.0 3.1 87 87
+ 0.8068 2 3 cbr 1000 ------- 2 1.0 3.1 87 87
- 0.8068 2 3 cbr 1000 ------- 2 1.0 3.1 87 87
+ 0.812 1 2 cbr 1000 ------- 2 1.0 3.1 89 90
- 0.812 1 2 cbr 1000 ------- 2 1.0 3.1 89 90
r 0.812255 2 3 cbr 1000 ------- 2 1.0 3.1 85 85
r 0.8148 1 2 cbr 1000 ------- 2 1.0 3.1 88 89
+ 0.8148 2 3 cbr 1000 ------- 2 1.0 3.1 88 89
- 0.8148 2 3 cbr 1000 ------- 2 1.0 3.1 88 89
+ 0.82 1 2 cbr 1000 ------- 2 1.0 3.1 90 91
- 0.82 1 2 cbr 1000 ------- 2 1.0 3.1 90 91
r 0.820255 2 3 cbr 1000 ------- 2 1.0 3.1 86 86
r 0.8228 1 2 cbr 1000 ------- 2 1.0 3.1 89 90
+ 0.8228 2 3 cbr 1000 ------- 2 1.0 3.1 89 90
- 0.8228 2 3 cbr 1000 ------- 2 1.0 3.1 89 90
r 0.82508 2 3 tcp 40 ------- 1 0.0 3.0 0 88
+ 0.82508 3 2 ack 40 ------- 1 3.0 0.0 0 92
- 0.82508 3 2 ack 40 ------- 1 3.0 0.0 0 92
+ 0.828 1 2 cbr 1000 ------- 2 1.0 3.1 91 93
- 0.828 1 2 cbr 1000 ------- 2 1.0 3.1 91 93
r 0.828255 2 3 cbr 1000 ------- 2 1.0 3.1 87 87
r 0.8308 1 2 cbr 1000 ------- 2 1.0 3.1 90 91
+ 0.8308 2 3 cbr 1000 ------- 2 1.0 3.1 90 91
- 0.8308 2 3 cbr 1000 ------- 2 1.0 3.1 90 91
+ 0.836 1 2 cbr 1000 ------- 2 1.0 3.1 92 94
- 0.836 1 2 cbr 1000 ------- 2 1.0 3.1 92 94
r 0.836255 2 3 cbr 1000 ------- 2 1.0 3.1 88 89
r 0.8388 1 2 cbr 1000 ------- 2 1.0 3.1 91 93
+ 0.8388 2 3 cbr 1000 ------- 2 1.0 3.1 91 93
- 0.8388 2 3 cbr 1000 ------- 2 1.0 3.1 91 93
+ 0.844 1 2 cbr 1000 ------- 2 1.0 3.1 93 95
- 0.844 1 2 cbr 1000 ------- 2 1.0 3.1 93 95
r 0.844255 2 3 cbr 1000 ------- 2 1.0 3.1 89 90
r 0.845138 3 2 ack 40 ------- 1 3.0 0.0 0 92
+ 0.845138 2 0 ack 40 ------- 1 3.0 0.0 0 92
- 0.845138 2 0 ack 40 ------- 1 3.0 0.0 0 92
r 0.8468 1 2 cbr 1000 ------- 2 1.0 3.1 92 94
+ 0.8468 2 3 cbr 1000 ------- 2 1.0 3.1 92 94
- 0.8468 2 3 cbr 1000 ------- 2 1.0 3.1 92 94
r 0.850159 2 0 ack 40 ------- 1 3.0 0.0 0 92
+ 0.850159 0 2 tcp 540 ------- 1 0.0 3.0 1 96
- 0.850159 0 2 tcp 540 ------- 1 0.0 3.0 1 96
+ 0.850159 0 2 tcp 540 ------- 1 0.0 3.0 2 97
- 0.850447 0 2 tcp 540 ------- 1 0.0 3.0 2 97
+ 0.852 1 2 cbr 1000 ------- 2 1.0 3.1 94 98
- 0.852 1 2 cbr 1000 ------- 2 1.0 3.1 94 98
r 0.852255 2 3 cbr 1000 ------- 2 1.0 3.1 90 91
r 0.8548 1 2 cbr 1000 ------- 2 1.0 3.1 93 95
+ 0.8548 2 3 cbr 1000 ------- 2 1.0 3.1 93 95
- 0.8548 2 3 cbr 1000 ------- 2 1.0 3.1 93 95
r 0.855447 0 2 tcp 540 ------- 1 0.0 3.0 1 96
+ 0.855447 2 3 tcp 540 ------- 1 0.0 3.0 1 96
r 0.855735 0 2 tcp 540 ------- 1 0.0 3.0 2 97
+ 0.855735 2 3 tcp 540 ------- 1 0.0 3.0 2 97
- 0.856255 2 3 tcp 540 ------- 1 0.0 3.0 1 96
- 0.85704 2 3 tcp 540 ------- 1 0.0 3.0 2 97
+ 0.86 1 2 cbr 1000 ------- 2 1.0 3.1 95 99
- 0.86 1 2 cbr 1000 ------- 2 1.0 3.1 95 99
r 0.860255 2 3 cbr 1000 ------- 2 1.0 3.1 91 93
r 0.8628 1 2 cbr 1000 ------- 2 1.0 3.1 94 98
+ 0.8628 2 3 cbr 1000 ------- 2 1.0 3.1 94 98
- 0.8628 2 3 cbr 1000 ------- 2 1.0 3.1 94 98
+ 0.868 1 2 cbr 1000 ------- 2 1.0 3.1 96 100
- 0.868 1 2 cbr 1000 ------- 2 1.0 3.1 96 100
r 0.868255 2 3 cbr 1000 ------- 2 1.0 3.1 92 94
r 0.8708 1 2 cbr 1000 ------- 2 1.0 3.1 95 99
+ 0.8708 2 3 cbr 1000 ------- 2 1.0 3.1 95 99
- 0.8708 2 3 cbr 1000 ------- 2 1.0 3.1 95 99
+ 0.876 1 2 cbr 1000 ------- 2 1.0 3.1 97 101
- 0.876 1 2 cbr 1000 ------- 2 1.0 3.1 97 101
r 0.876255 2 3 cbr 1000 ------- 2 1.0 3.1 93 95
r 0.87704 2 3 tcp 540 ------- 1 0.0 3.0 1 96
+ 0.87704 3 2 ack 40 ------- 1 3.0 0.0 1 102
- 0.87704 3 2 ack 40 ------- 1 3.0 0.0 1 102
r 0.877825 2 3 tcp 540 ------- 1 0.0 3.0 2 97
+ 0.877825 3 2 ack 40 ------- 1 3.0 0.0 2 103
- 0.877825 3 2 ack 40 ------- 1 3.0 0.0 2 103
r 0.8788 1 2 cbr 1000 ------- 2 1.0 3.1 96 100
+ 0.8788 2 3 cbr 1000 ------- 2 1.0 3.1 96 100
- 0.8788 2 3 cbr 1000 ------- 2 1.0 3.1 96 100
+ 0.884 1 2 cbr 1000 ------- 2 1.0 3.1 98 104
- 0.884 1 2 cbr 1000 ------- 2 1.0 3.1 98 104
r 0.884255 2 3 cbr 1000 ------- 2 1.0 3.1 94 98
r 0.8868 1 2 cbr 1000 ------- 2 1.0 3.1 97 101
+ 0.8868 2 3 cbr 1000 ------- 2 1.0 3.1 97 101
- 0.8868 2 3 cbr 1000 ------- 2 1.0 3.1 97 101
+ 0.892 1 2 cbr 1000 ------- 2 1.0 3.1 99 105
- 0.892 1 2 cbr 1000 ------- 2 1.0 3.1 99 105
r 0.892255 2 3 cbr 1000 ------- 2 1.0 3.1 95 99
r 0.8948 1 2 cbr 1000 ------- 2 1.0 3.1 98 104
+ 0.8948 2 3 cbr 1000 ------- 2 1.0 3.1 98 104
- 0.8948 2 3 cbr 1000 ------- 2 1.0 3.1 98 104
r 0.897098 3 2 ack 40 ------- 1 3.0 0.0 1 102
+ 0.897098 2 0 ack 40 ------- 1 3.0 0.0 1 102
- 0.897098 2 0 ack 40 ------- 1 3.0 0.0 1 102
r 0.897884 3 2 ack 40 ------- 1 3.0 0.0 2 103
+ 0.897884 2 0 ack 40 ------- 1 3.0 0.0 2 103
- 0.897884 2 0 ack 40 ------- 1 3.0 0.0 2 103
+ 0.9 1 2 cbr 1000 ------- 2 1.0 3.1 100 106
- 0.9 1 2 cbr 1000 ------- 2 1.0 3.1 100 106
r 0.900255 2 3 cbr 1000 ------- 2 1.0 3.1 96 100
r 0.90212 2 0 ack 40 ------- 1 3.0 0.0 1 102
+ 0.90212 0 2 tcp 540 ------- 1 0.0 3.0 3 107
- 0.90212 0 2 tcp 540 ------- 1 0.0 3.0 3 107
+ 0.90212 0 2 tcp 540 ------- 1 0.0 3.0 4 108
- 0.902408 0 2 tcp 540 ------- 1 0.0 3.0 4 108
r 0.9028 1 2 cbr 1000 ------- 2 1.0 3.1 99 105
+ 0.9028 2 3 cbr 1000 ------- 2 1.0 3.1 99 105
- 0.9028 2 3 cbr 1000 ------- 2 1.0 3.1 99 105
r 0.902905 2 0 ack 40 ------- 1 3.0 0.0 2 103
+ 0.902905 0 2 tcp 540 ------- 1 0.0 3.0 5 109
- 0.902905 0 2 tcp 540 ------- 1 0.0 3.0 5 109
+ 0.902905 0 2 tcp 540 ------- 1 0.0 3.0 6 110
- 0.903193 0 2 tcp 540 ------- 1 0.0 3.0 6 110
r 0.907408 0 2 tcp 540 ------- 1 0.0 3.0 3 107
+ 0.907408 2 3 tcp 540 ------- 1 0.0 3.0 3 107
- 0.907408 2 3 tcp 540 ------- 1 0.0 3.0 3 107
r 0.907696 0 2 tcp 540 ------- 1 0.0 3.0 4 108
+ 0.907696 2 3 tcp 540 ------- 1 0.0 3.0 4 108
+ 0.908 1 2 cbr 1000 ------- 2 1.0 3.1 101 111
- 0.908 1 2 cbr 1000 ------- 2 1.0 3.1 101 111
r 0.908193 0 2 tcp 540 ------- 1 0.0 3.0 5 109
+ 0.908193 2 3 tcp 540 ------- 1 0.0 3.0 5 109
- 0.908193 2 3 tcp 540 ------- 1 0.0 3.0 4 108
r 0.908255 2 3 cbr 1000 ------- 2 1.0 3.1 97 101
r 0.908481 0 2 tcp 540 ------- 1 0.0 3.0 6 110