+ 0.1 0 1 tcp 40 ------- 0 0.0 1.0 0 0
- 0.1 0 1 tcp 40 ------- 0 0.0 1.0 0 0
r 0.3016 0 1 tcp 40 ------- 0 0.0 1.0 0 0
+ 0.3016 1 0 ack 40 ------- 0 1.0 0.0 0 1
- 0.3016 1 0 ack 40 ------- 0 1.0 0.0 0 1
r 0.5032 1 0 ack 40 ------- 0 1.0 0.0 0 1
+ 0.5032 0 1 tcp 1040 ------- 0 0.0 1.0 1 2
- 0.5032 0 1 tcp 1040 ------- 0 0.0 1.0 1 2
r 0.7448 0 1 tcp 1040 ------- 0 0.0 1.0 1 2
+ 0.7448 1 0 ack 40 ------- 0 1.0 0.0 1 3
- 0.7448 1 0 ack 40 ------- 0 1.0 0.0 1 3
r 0.9464 1 0 ack 40 ------- 0 1.0 0.0 1 3
+ 0.9464 0 1 tcp 1040 ------- 0 0.0 1.0 2 4
- 0.9464 0 1 tcp 1040 ------- 0 0.0 1.0 2 4
r 1.188 0 1 tcp 1040 ------- 0 0.0 1.0 2 4
+ 1.188 1 0 ack 40 ------- 0 1.0 0.0 2 5
- 1.188 1 0 ack 40 ------- 0 1.0 0.0 2 5
r 1.3896 1 0 ack 40 ------- 0 1.0 0.0 2 5
+ 1.3896 0 1 tcp 1040 ------- 0 0.0 1.0 3 6
- 1.3896 0 1 tcp 1040 ------- 0 0.0 1.0 3 6
r 1.6312 0 1 tcp 1040 ------- 0 0.0 1.0 3 6
+ 1.6312 1 0 ack 40 ------- 0 1.0 0.0 3 7
- 1.6312 1 0 ack 40 ------- 0 1.0 0.0 3 7
r 1.8328 1 0 ack 40 ------- 0 1.0 0.0 3 7
+ 1.8328 0 1 tcp 1040 ------- 0 0.0 1.0 4 8
- 1.8328 0 1 tcp 1040 ------- 0 0.0 1.0 4 8
r 2.0744 0 1 tcp 1040 ------- 0 0.0 1.0 4 8
+ 2.0744 1 0 ack 40 ------- 0 1.0 0.0 4 9
- 2.0744 1 0 ack 40 ------- 0 1.0 0.0 4 9
r 2.276 1 0 ack 40 ------- 0 1.0 0.0 4 9
+ 2.276 0 1 tcp 1040 ------- 0 0.0 1.0 5 10
- 2.276 0 1 tcp 1040 ------- 0 0.0 1.0 5 10
r 2.5176 0 1 tcp 1040 ------- 0 0.0 1.0 5 10
+ 2.5176 1 0 ack 40 ------- 0 1.0 0.0 5 11
- 2.5176 1 0 ack 40 ------- 0 1.0 0.0 5 11
r 2.7192 1 0 ack 40 ------- 0 1.0 0.0 5 11
+ 2.7192 0 1 tcp 1040 ------- 0 0.0 1.0 6 12
- 2.7192 0 1 tcp 1040 ------- 0 0.0 1.0 6 12
r 2.9608 0 1 tcp 1040 ------- 0 0.0 1.0 6 12
+ 2.9608 1 0 ack 40 ------- 0 1.0 0.0 6 13
- 2.9608 1 0 ack 40 ------- 0 1.0 0.0 6 13
r 3.1624 1 0 ack 40 ------- 0 1.0 0.0 6 13
